# vtk DataFile Version 2.0
hexahedron, Created by Gmsh
ASCII
DATASET UNSTRUCTURED_GRID
POINTS 8 double
-1 -1 -1
1 -1 -1
1 1 -1
-1 1 -1
-1 -1 1
1 -1 1
1 1 1
-1 1 1

CELLS 27 91
1 0
1 1
1 2
1 3
1 4
1 5
1 6
1 7
2 0 1
2 1 2
2 2 3
2 3 0
2 0 4
2 1 5
2 2 6
2 3 7
2 4 5
2 5 6
2 6 7
2 7 4
4 0 1 2 3
4 0 1 5 4
4 1 2 6 5
4 2 3 7 6
4 3 0 4 7
4 4 5 6 7
8 0 1 2 3 4 5 6 7

CELL_TYPES 27
1
1
1
1
1
1
1
1
3
3
3
3
3
3
3
3
3
3
3
3
9
9
9
9
9
9
12

CELL_DATA 27
FIELD FieldData 1
Material 1 27 int
1
1
1
1
1
1
1
1
13
13
13
13
13
13
13
13
13
13
13
13
9
9
9
9
9
9
2