# vtk DataFile Version 2.0
prism, Created by Gmsh
ASCII
DATASET UNSTRUCTURED_GRID
POINTS 6 double
0 0 -1
1 0 -1
0 1 -1
0 0 1
1 0 1
0 1 1

CELLS 21 69
1 0
1 1
1 2
1 3
1 4
1 5
2 0 1
2 1 2
2 2 0
2 0 3
2 1 4
2 2 5
2 3 4
2 4 5
2 5 3
3 0 1 2
4 0 1 4 3
4 1 2 5 4
4 2 0 3 5
3 3 4 5
6 0 1 2 3 4 5

CELL_TYPES 21
1
1
1
1
1
1
3
3
3
3
3
3
3
3
3
5
9
9
9
5
13

CELL_DATA 21
FIELD FieldData 1
Material 1 21 int
1
1
1
1
1
1
13
13
13
13
13
13
13
13
13
5
5
5
5
5
3