# vtk DataFile Version 2.0
pyramid, Created by Gmsh
ASCII
DATASET UNSTRUCTURED_GRID
POINTS 5 double
-1 -1 0
1 -1 0
1 1 0
-1 1 0
0 0 1

CELLS 19 61
1 0
1 1
1 2
1 3
1 4
2 0 1
2 1 2
2 2 3
2 3 0
2 0 4
2 1 4
2 2 4
2 3 4
3 0 1 4
3 1 2 4
3 2 3 4
3 3 0 4
4 0 1 2 3
5 0 1 2 3 4

CELL_TYPES 19
1
1
1
1
1
3
3
3
3
3
3
3
3
5
5
5
5
9
14

CELL_DATA 19
FIELD FieldData 1
Material 1 19 int
1
1
1
1
1
3
3
3
3
3
3
3
3
5
5
5
5
5
14