# vtk DataFile Version 2.0
quad, Created by Gmsh
ASCII
DATASET UNSTRUCTURED_GRID
POINTS 4 double
-1 -1 0
1 -1 0
1 1 0
-1 1 0

CELLS 9 25
1 0
1 1
1 2
1 3
2 0 1
2 1 2
2 2 3
2 3 0
4 1 2 3 0

CELL_TYPES 9
1
1
1
1
3
3
3
3
9

CELL_DATA 9
FIELD FieldData 1
Material 1 9 int
1
1
1
1
9
9
9
9
1